H: 10276, Al1: 6879, O: 5138, O1: 5000, , water number: 5139 lammps data format
27293 atoms
3 atom types
-21.435529 21.438146 xlo xhi
-21.489091 21.435550 ylo yhi
-291.449073 291.409617 zlo zhi

Masses

1 26.9815  # Al
2  1.0080  # H
3 15.9994  # O

Atoms  # charge

1 1 0.0 18.829825  18.475908  -19.470246 
2 1 0.0 18.829825  18.475908  -15.420666 
3 1 0.0 18.829825  16.451118  -17.445456 
4 1 0.0 18.829825  14.426328  -19.470246 
5 1 0.0 16.805035  18.475908  -17.445456 
6 1 0.0 16.805035  16.451118  -19.470246 
7 1 0.0 14.780245  18.475908  -19.470246 
8 1 0.0 18.829825  18.475908  -11.371086 
9 1 0.0 18.829825  16.451118  -13.395876 
10 1 0.0 18.829825  14.426328  -15.420666 
11 1 0.0 18.829825  12.401538  -17.445456 
12 1 0.0 18.829825  10.376748  -19.470246 
13 1 0.0 16.805035  18.475908  -13.395876 
14 1 0.0 16.805035  16.451118  -15.420666 
15 1 0.0 16.805035  14.426328  -17.445456 
16 1 0.0 16.805035  12.401538  -19.470246 
17 1 0.0 14.780245  18.475908  -15.420666 
18 1 0.0 14.780245  16.451118  -17.445456 
19 1 0.0 14.780245  14.426328  -19.470246 
20 1 0.0 12.755455  18.475908  -17.445456 
21 1 0.0 12.755455  16.451118  -19.470246 
22 1 0.0 10.730665  18.475908  -19.470246 
23 1 0.0 18.829825  18.475908  -7.321506 
24 1 0.0 18.829825  16.451118  -9.346296 
25 1 0.0 18.829825  14.426328  -11.371086 
26 1 0.0 18.829825  12.401538  -13.395876 
27 1 0.0 18.829825  10.376748  -15.420666 
28 1 0.0 18.829825  8.351958  -17.445456 
29 1 0.0 18.829825  6.327168  -19.470246 
30 1 0.0 16.805035  18.475908  -9.346296 
31 1 0.0 16.805035  16.451118  -11.371086 
32 1 0.0 16.805035  14.426328  -13.395876 
33 1 0.0 16.805035  12.401538  -15.420666 
34 1 0.0 16.805035  10.376748  -17.445456 
35 1 0.0 16.805035  8.351958  -19.470246 
36 1 0.0 14.780245  18.475908  -11.371086 
37 1 0.0 14.780245  16.451118  -13.395876 
38 1 0.0 14.780245  14.426328  -15.420666 
39 1 0.0 14.780245  12.401538  -17.445456 
40 1 0.0 14.780245  10.376748  -19.470246 
41 1 0.0 12.755455  18.475908  -13.395876 
42 1 0.0 12.755455  16.451118  -15.420666 
43 1 0.0 12.755455  14.426328  -17.445456 
44 1 0.0 12.755455  12.401538  -19.470246 
45 1 0.0 10.730665  18.475908  -15.420666 
46 1 0.0 10.730665  16.451118  -17.445456 
47 1 0.0 10.730665  14.426328  -19.470246 
48 1 0.0 8.705875  18.475908  -17.445456 
49 1 0.0 8.705875  16.451118  -19.470246 
50 1 0.0 6.681085  18.475908  -19.470246 
51 1 0.0 18.829825  18.475908  -3.271926 
52 1 0.0 18.829825  16.451118  -5.296716 
53 1 0.0 18.829825  14.426328  -7.321506 
54 1 0.0 18.829825  12.401538  -9.346296 
55 1 0.0 18.829825  10.376748  -11.371086 
56 1 0.0 18.829825  8.351958  -13.395876 
57 1 0.0 18.829825  6.327168  -15.420666 
58 1 0.0 18.829825  4.302378  -17.445456 
59 1 0.0 18.829825  2.277588  -19.470246 
60 1 0.0 16.805035  18.475908  -5.296716 
61 1 0.0 16.805035  16.451118  -7.321506 
62 1 0.0 16.805035  14.426328  -9.346296 
63 1 0.0 16.805035  12.401538  -11.371086 
64 1 0.0 16.805035  10.376748  -13.395876 
65 1 0.0 16.805035  8.351958  -15.420666 
66 1 0.0 16.805035  6.327168  -17.445456 
67 1 0.0 16.805035  4.302378  -19.470246 
68 1 0.0 14.780245  18.475908  -7.321506 
69 1 0.0 14.780245  16.451118  -9.346296 
70 1 0.0 14.780245  14.426328  -11.371086 
71 1 0.0 14.780245  12.401538  -13.395876 
72 1 0.0 14.780245  10.376748  -15.420666 
73 1 0.0 14.780245  8.351958  -17.445456 
74 1 0.0 14.780245  6.327168  -19.470246 
75 1 0.0 12.755455  18.475908  -9.346296 
76 1 0.0 12.755455  16.451118  -11.371086 
77 1 0.0 12.755455  14.426328  -13.395876 
78 1 0.0 12.755455  12.401538  -15.420666 
79 1 0.0 12.755455  10.376748  -17.445456 
80 1 0.0 12.755455  8.351958  -19.470246 
81 1 0.0 10.730665  18.475908  -11.371086 
82 1 0.0 10.730665  16.451118  -13.395876 
83 1 0.0 10.730665  14.426328  -15.420666 
84 1 0.0 10.730665  12.401538  -17.445456 
85 1 0.0 10.730665  10.376748  -19.470246 
86 1 0.0 8.705875  18.475908  -13.395876 
87 1 0.0 8.705875  16.451118  -15.420666 
88 1 0.0 8.705875  14.426328  -17.445456 
89 1 0.0 8.705875  12.401538  -19.470246 
90 1 0.0 6.681085  18.475908  -15.420666 
91 1 0.0 6.681085  16.451118  -17.445456 
92 1 0.0 6.681085  14.426328  -19.470246 
93 1 0.0 4.656295  18.475908  -17.445456 
94 1 0.0 4.656295  16.451118  -19.470246 
95 1 0.0 2.631505  18.475908  -19.470246 
96 1 0.0 18.829825  18.475908  0.777654 
97 1 0.0 18.829825  16.451118  -1.247136 
98 1 0.0 18.829825  14.426328  -3.271926 
99 1 0.0 18.829825  12.401538  -5.296716 
100 1 0.0 18.829825  10.376748  -7.321506 
101 1 0.0 18.829825  8.351958  -9.346296 
102 1 0.0 18.829825  6.327168  -11.371086 
103 1 0.0 18.829825  4.302378  -13.395876 
104 1 0.0 18.829825  2.277588  -15.420666 
105 1 0.0 18.829825  0.252798  -17.445456 
106 1 0.0 18.829825  -1.771992  -19.470246 
107 1 0.0 16.805035  18.475908  -1.247136 
108 1 0.0 16.805035  16.451118  -3.271926 
109 1 0.0 16.805035  14.426328  -5.296716 
110 1 0.0 16.805035  12.401538  -7.321506 
111 1 0.0 16.805035  10.376748  -9.346296 
112 1 0.0 16.805035  8.351958  -11.371086 
113 1 0.0 16.805035  6.327168  -13.395876 
114 1 0.0 16.805035  4.302378  -15.420666 
115 1 0.0 16.805035  2.277588  -17.445456 
116 1 0.0 16.805035  0.252798  -19.470246 
117 1 0.0 14.780245  18.475908  -3.271926 
118 1 0.0 14.780245  16.451118  -5.296716 
119 1 0.0 14.780245  14.426328  -7.321506 
120 1 0.0 14.780245  12.401538  -9.346296 
121 1 0.0 14.780245  10.376748  -11.371086 
122 1 0.0 14.780245  8.351958  -13.395876 
123 1 0.0 14.780245  6.327168  -15.420666 
124 1 0.0 14.780245  4.302378  -17.445456 
125 1 0.0 14.780245  2.277588  -19.470246 
126 1 0.0 12.755455  18.475908  -5.296716 
127 1 0.0 12.755455  16.451118  -7.321506 
128 1 0.0 12.755455  14.426328  -9.346296 
129 1 0.0 12.755455  12.401538  -11.371086 
130 1 0.0 12.755455  10.376748  -13.395876 
131 1 0.0 12.755455  8.351958  -15.420666 
132 1 0.0 12.755455  6.327168  -17.445456 
133 1 0.0 12.755455  4.302378  -19.470246 
134 1 0.0 10.730665  18.475908  -7.321506 
135 1 0.0 10.730665  16.451118  -9.346296 
136 1 0.0 10.730665  14.426328  -11.371086 
137 1 0.0 10.730665  12.401538  -13.395876 
138 1 0.0 10.730665  10.376748  -15.420666 
139 1 0.0 10.730665  8.351958  -17.445456 
140 1 0.0 10.730665  6.327168  -19.470246 
141 1 0.0 8.705875  18.475908  -9.346296 
142 1 0.0 8.705875  16.451118  -11.371086 
143 1 0.0 8.705875  14.426328  -13.395876 
144 1 0.0 8.705875  12.401538  -15.420666 
145 1 0.0 8.705875  10.376748  -17.445456 
146 1 0.0 8.705875  8.351958  -19.470246 
147 1 0.0 6.681085  18.475908  -11.371086 
148 1 0.0 6.681085  16.451118  -13.395876 
149 1 0.0 6.681085  14.426328  -15.420666 
150 1 0.0 6.681085  12.401538  -17.445456 
151 1 0.0 6.681085  10.376748  -19.470246 
152 1 0.0 4.656295  18.475908  -13.395876 
153 1 0.0 4.656295  16.451118  -15.420666 
154 1 0.0 4.656295  14.426328  -17.445456 
155 1 0.0 4.656295  12.401538  -19.470246 
156 1 0.0 2.631505  18.475908  -15.420666 
157 1 0.0 2.631505  16.451118  -17.445456 
158 1 0.0 2.631505  14.426328  -19.470246 
159 1 0.0 0.606715  18.475908  -17.445456 
160 1 0.0 0.606715  16.451118  -19.470246 
161 1 0.0 -1.418075  18.475908  -19.470246 
162 1 0.0 18.829825  18.475908  4.827234 
163 1 0.0 18.829825  16.451118  2.802444 
164 1 0.0 18.829825  14.426328  0.777654 
165 1 0.0 18.829825  12.401538  -1.247136 
166 1 0.0 18.829825  10.376748  -3.271926 
167 1 0.0 18.829825  8.351958  -5.296716 
168 1 0.0 18.829825  6.327168  -7.321506 
169 1 0.0 18.829825  4.302378  -9.346296 
170 1 0.0 18.829825  2.277588  -11.371086 
171 1 0.0 18.829825  0.252798  -13.395876 
172 1 0.0 18.829825  -1.771992  -15.420666 
173 1 0.0 18.829825  -3.796782  -17.445456 
174 1 0.0 18.829825  -5.821572  -19.470246 
175 1 0.0 16.805035  18.475908  2.802444 
176 1 0.0 16.805035  16.451118  0.777654 
177 1 0.0 16.805035  14.426328  -1.247136 
178 1 0.0 16.805035  12.401538  -3.271926 
179 1 0.0 16.805035  10.376748  -5.296716 
180 1 0.0 16.805035  8.351958  -7.321506 
181 1 0.0 16.805035  6.327168  -9.346296 
182 1 0.0 16.805035  4.302378  -11.371086 
183 1 0.0 16.805035  2.277588  -13.395876 
184 1 0.0 16.805035  0.252798  -15.420666 
185 1 0.0 16.805035  -1.771992  -17.445456 
186 1 0.0 16.805035  -3.796782  -19.470246 
187 1 0.0 14.780245  18.475908  0.777654 
188 1 0.0 14.780245  16.451118  -1.247136 
189 1 0.0 14.780245  14.426328  -3.271926 
190 1 0.0 14.780245  12.401538  -5.296716 
191 1 0.0 14.780245  10.376748  -7.321506 
192 1 0.0 14.780245  8.351958  -9.346296 
193 1 0.0 14.780245  6.327168  -11.371086 
194 1 0.0 14.780245  4.302378  -13.395876 
195 1 0.0 14.780245  2.277588  -15.420666 
196 1 0.0 14.780245  0.252798  -17.445456 
197 1 0.0 14.780245  -1.771992  -19.470246 
198 1 0.0 12.755455  18.475908  -1.247136 
199 1 0.0 12.755455  16.451118  -3.271926 
200 1 0.0 12.755455  14.426328  -5.296716 
201 1 0.0 12.755455  12.401538  -7.321506 
202 1 0.0 12.755455  10.376748  -9.346296 
203 1 0.0 12.755455  8.351958  -11.371086 
204 1 0.0 12.755455  6.327168  -13.395876 
205 1 0.0 12.755455  4.302378  -15.420666 
206 1 0.0 12.755455  2.277588  -17.445456 
207 1 0.0 12.755455  0.252798  -19.470246 
208 1 0.0 10.730665  18.475908  -3.271926 
209 1 0.0 10.730665  16.451118  -5.296716 
210 1 0.0 10.730665  14.426328  -7.321506 
211 1 0.0 10.730665  12.401538  -9.346296 
212 1 0.0 10.730665  10.376748  -11.371086 
213 1 0.0 10.730665  8.351958  -13.395876 
214 1 0.0 10.730665  6.327168  -15.420666 
215 1 0.0 10.730665  4.302378  -17.445456 
216 1 0.0 10.730665  2.277588  -19.470246 
217 1 0.0 8.705875  18.475908  -5.296716 
218 1 0.0 8.705875  16.451118  -7.321506 
219 1 0.0 8.705875  14.426328  -9.346296 
220 1 0.0 8.705875  12.401538  -11.371086 
221 1 0.0 8.705875  10.376748  -13.395876 
222 1 0.0 8.705875  8.351958  -15.420666 
223 1 0.0 8.705875  6.327168  -17.445456 
224 1 0.0 8.705875  4.302378  -19.470246 
225 1 0.0 6.681085  18.475908  -7.321506 
226 1 0.0 6.681085  16.451118  -9.346296 
227 1 0.0 6.681085  14.426328  -11.371086 
228 1 0.0 6.681085  12.401538  -13.395876 
229 1 0.0 6.681085  10.376748  -15.420666 
230 1 0.0 6.681085  8.351958  -17.445456 
231 1 0.0 6.681085  6.327168  -19.470246 
232 1 0.0 4.656295  18.475908  -9.346296 
233 1 0.0 4.656295  16.451118  -11.371086 
234 1 0.0 4.656295  14.426328  -13.395876 
235 1 0.0 4.656295  12.401538  -15.420666 
236 1 0.0 4.656295  10.376748  -17.445456 
237 1 0.0 4.656295  8.351958  -19.470246 
238 1 0.0 2.631505  18.475908  -11.371086 
239 1 0.0 2.631505  16.451118  -13.395876 
240 1 0.0 2.631505  14.426328  -15.420666 
241 1 0.0 2.631505  12.401538  -17.445456 
242 1 0.0 2.631505  10.376748  -19.470246 
243 1 0.0 0.606715  18.475908  -13.395876 
244 1 0.0 0.606715  16.451118  -15.420666 
245 1 0.0 0.606715  14.426328  -17.445456 
246 1 0.0 0.606715  12.401538  -19.470246 
247 1 0.0 -1.418075  18.475908  -15.420666 
248 1 0.0 -1.418075  16.451118  -17.445456 
249 1 0.0 -1.418075  14.426328  -19.470246 
250 1 0.0 -3.442865  18.475908  -17.445456 
251 1 0.0 -3.442865  16.451118  -19.470246 
252 1 0.0 -5.467655  18.475908  -19.470246 
253 1 0.0 18.829825  18.475908  8.876814 
254 1 0.0 18.829825  16.451118  6.852024 
255 1 0.0 18.829825  14.426328  4.827234 
256 1 0.0 18.829825  12.401538  2.802444 
257 1 0.0 18.829825  10.376748  0.777654 
258 1 0.0 18.829825  8.351958  -1.247136 
259 1 0.0 18.829825  6.327168  -3.271926 
260 1 0.0 18.829825  4.302378  -5.296716 
261 1 0.0 18.829825  2.277588  -7.321506 
262 1 0.0 18.829825  0.252798  -9.346296 
263 1 0.0 18.829825  -1.771992  -11.371086 
264 1 0.0 18.829825  -3.796782  -13.395876 
265 1 0.0 18.829825  -5.821572  -15.420666 
266 1 0.0 18.829825  -7.846362  -17.445456 
267 1 0.0 18.829825  -9.871152  -19.470246 
268 1 0.0 16.805035  18.475908  6.852024 
269 1 0.0 16.805035  16.451118  4.827234 
270 1 0.0 16.805035  14.426328  2.802444 
271 1 0.0 16.805035  12.401538  0.777654 
272 1 0.0 16.805035  10.376748  -1.247136 
273 1 0.0 16.805035  8.351958  -3.271926 
274 1 0.0 16.805035  6.327168  -5.296716 
275 1 0.0 16.805035  4.302378  -7.321506 
276 1 0.0 16.805035  2.277588  -9.346296 
277 1 0.0 16.805035  0.252798  -11.371086 
278 1 0.0 16.805035  -1.771992  -13.395876 
279 1 0.0 16.805035  -3.796782  -15.420666 
280 1 0.0 16.805035  -5.821572  -17.445456 
281 1 0.0 16.805035  -7.846362  -19.470246 
282 1 0.0 14.780245  18.475908  4.827234 
283 1 0.0 14.780245  16.451118  2.802444 
284 1 0.0 14.780245  14.426328  0.777654 
285 1 0.0 14.780245  12.401538  -1.247136 
286 1 0.0 14.780245  10.376748  -3.271926 
287 1 0.0 14.780245  8.351958  -5.296716 
288 1 0.0 14.780245  6.327168  -7.321506 
289 1 0.0 14.780245  4.302378  -9.346296 
290 1 0.0 14.780245  2.277588  -11.371086 
291 1 0.0 14.780245  0.252798  -13.395876 
292 1 0.0 14.780245  -1.771992  -15.420666 
293 1 0.0 14.780245  -3.796782  -17.445456 
294 1 0.0 14.780245  -5.821572  -19.470246 
295 1 0.0 12.755455  18.475908  2.802444 
296 1 0.0 12.755455  16.451118  0.777654 
297 1 0.0 12.755455  14.426328  -1.247136 
298 1 0.0 12.755455  12.401538  -3.271926 
299 1 0.0 12.755455  10.376748  -5.296716 
300 1 0.0 12.755455  8.351958  -7.321506 
301 1 0.0 12.755455  6.327168  -9.346296 
302 1 0.0 12.755455  4.302378  -11.371086 
303 1 0.0 12.755455  2.277588  -13.395876 
304 1 0.0 12.755455  0.252798  -15.420666 
305 1 0.0 12.755455  -1.771992  -17.445456 
306 1 0.0 12.755455  -3.796782  -19.470246 
307 1 0.0 10.730665  18.475908  0.777654 
308 1 0.0 10.730665  16.451118  -1.247136 
309 1 0.0 10.730665  14.426328  -3.271926 
310 1 0.0 10.730665  12.401538  -5.296716 
311 1 0.0 10.730665  10.376748  -7.321506 
312 1 0.0 10.730665  8.351958  -9.346296 
313 1 0.0 10.730665  6.327168  -11.371086 
314 1 0.0 10.730665  4.302378  -13.395876 
315 1 0.0 10.730665  2.277588  -15.420666 
316 1 0.0 10.730665  0.252798  -17.445456 
317 1 0.0 10.730665  -1.771992  -19.470246 
318 1 0.0 8.705875  18.475908  -1.247136 
319 1 0.0 8.705875  16.451118  -3.271926 
320 1 0.0 8.705875  14.426328  -5.296716 
321 1 0.0 8.705875  12.401538  -7.321506 
322 1 0.0 8.705875  10.376748  -9.346296 
323 1 0.0 8.705875  8.351958  -11.371086 
324 1 0.0 8.705875  6.327168  -13.395876 
325 1 0.0 8.705875  4.302378  -15.420666 
326 1 0.0 8.705875  2.277588  -17.445456 
327 1 0.0 8.705875  0.252798  -19.470246 
328 1 0.0 6.681085  18.475908  -3.271926 
329 1 0.0 6.681085  16.451118  -5.296716 
330 1 0.0 6.681085  14.426328  -7.321506 
331 1 0.0 6.681085  12.401538  -9.346296 
332 1 0.0 6.681085  10.376748  -11.371086 
333 1 0.0 6.681085  8.351958  -13.395876 
334 1 0.0 6.681085  6.327168  -15.420666 
335 1 0.0 6.681085  4.302378  -17.445456 
336 1 0.0 6.681085  2.277588  -19.470246 
337 1 0.0 4.656295  18.475908  -5.296716 
338 1 0.0 4.656295  16.451118  -7.321506 
339 1 0.0 4.656295  14.426328  -9.346296 
340 1 0.0 4.656295  12.401538  -11.371086 
341 1 0.0 4.656295  10.376748  -13.395876 
342 1 0.0 4.656295  8.351958  -15.420666 
343 1 0.0 4.656295  6.327168  -17.445456 
344 1 0.0 4.656295  4.302378  -19.470246 
345 1 0.0 2.631505  18.475908  -7.321506 
346 1 0.0 2.631505  16.451118  -9.346296 
347 1 0.0 2.631505  14.426328  -11.371086 
348 1 0.0 2.631505  12.401538  -13.395876 
349 1 0.0 2.631505  10.376748  -15.420666 
350 1 0.0 2.631505  8.351958  -17.445456 
351 1 0.0 2.631505  6.327168  -19.470246 
352 1 0.0 0.606715  18.475908  -9.346296 
353 1 0.0 0.606715  16.451118  -11.371086 
354 1 0.0 0.606715  14.426328  -13.395876 
355 1 0.0 0.606715  12.401538  -15.420666 
356 1 0.0 0.606715  10.376748  -17.445456 
357 1 0.0 0.606715  8.351958  -19.470246 
358 1 0.0 -1.418075  18.475908  -11.371086 
359 1 0.0 -1.418075  16.451118  -13.395876 
360 1 0.0 -1.418075  14.426328  -15.420666 
361 1 0.0 -1.418075  12.401538  -17.445456 
362 1 0.0 -1.418075  10.376748  -19.470246 
363 1 0.0 -3.442865  18.475908  -13.395876 
364 1 0.0 -3.442865  16.451118  -15.420666 
365 1 0.0 -3.442865  14.426328  -17.445456 
366 1 0.0 -3.442865  12.401538  -19.470246 
367 1 0.0 -5.467655  18.475908  -15.420666 
368 1 0.0 -5.467655  16.451118  -17.445456 
369 1 0.0 -5.467655  14.426328  -19.470246 
370 1 0.0 -7.492445  18.475908  -17.445456 
371 1 0.0 -7.492445  16.451118  -19.470246 
372 1 0.0 -9.517235  18.475908  -19.470246 
373 1 0.0 18.829825  18.475908  12.926394 
374 1 0.0 18.829825  16.451118  10.901604 
375 1 0.0 18.829825  14.426328  8.876814 
376 1 0.0 18.829825  12.401538  6.852024 
377 1 0.0 18.829825  10.376748  4.827234 
378 1 0.0 18.829825  8.351958  2.802444 
379 1 0.0 18.829825  6.327168  0.777654 
380 1 0.0 18.829825  4.302378  -1.247136 
381 1 0.0 18.829825  2.277588  -3.271926 
382 1 0.0 18.829825  0.252798  -5.296716 
383 1 0.0 18.829825  -1.771992  -7.321506 
384 1 0.0 18.829825  -3.796782  -9.346296 
385 1 0.0 18.829825  -5.821572  -11.371086 
386 1 0.0 18.829825  -7.846362  -13.395876 
387 1 0.0 18.829825  -9.871152  -15.420666 
388 1 0.0 18.829825  -11.895942  -17.445456 
389 1 0.0 18.829825  -13.920732  -19.470246 
390 1 0.0 16.805035  18.475908  10.901604 
391 1 0.0 16.805035  16.451118  8.876814 
392 1 0.0 16.805035  14.426328  6.852024 
393 1 0.0 16.805035  12.401538  4.827234 
394 1 0.0 16.805035  10.376748  2.802444 
395 1 0.0 16.805035  8.351958  0.777654 
396 1 0.0 16.805035  6.327168  -1.247136 
397 1 0.0 16.805035  4.302378  -3.271926 
398 1 0.0 16.805035  2.277588  -5.296716 
399 1 0.0 16.805035  0.252798  -7.321506 
400 1 0.0 16.805035  -1.771992  -9.346296 
401 1 0.0 16.805035  -3.796782  -11.371086 
402 1 0.0 16.805035  -5.821572  -13.395876 
403 1 0.0 16.805035  -7.846362  -15.420666 
404 1 0.0 16.805035  -9.871152  -17.445456 
405 1 0.0 16.805035  -11.895942  -19.470246 
406 1 0.0 14.780245  18.475908  8.876814 
407 1 0.0 14.780245  16.451118  6.852024 
408 1 0.0 14.780245  14.426328  4.827234 
409 1 0.0 14.780245  12.401538  2.802444 
410 1 0.0 14.780245  10.376748  0.777654 
411 1 0.0 14.780245  8.351958  -1.247136 
412 1 0.0 14.780245  6.327168  -3.271926 
413 1 0.0 14.780245  4.302378  -5.296716 
414 1 0.0 14.780245  2.277588  -7.321506 
415 1 0.0 14.780245  0.252798  -9.346296 
416 1 0.0 14.780245  -1.771992  -11.371086 
417 1 0.0 14.780245  -3.796782  -13.395876 
418 1 0.0 14.780245  -5.821572  -15.420666 
419 1 0.0 14.780245  -7.846362  -17.445456 
420 1 0.0 14.780245  -9.871152  -19.470246 
421 1 0.0 12.755455  18.475908  6.852024 
422 1 0.0 12.755455  16.451118  4.827234 
423 1 0.0 12.755455  14.426328  2.802444 
424 1 0.0 12.755455  12.401538  0.777654 
425 1 0.0 12.755455  10.376748  -1.247136 
426 1 0.0 12.755455  8.351958  -3.271926 
427 1 0.0 12.755455  6.327168  -5.296716 
428 1 0.0 12.755455  4.302378  -7.321506 
429 1 0.0 12.755455  2.277588  -9.346296 
430 1 0.0 12.755455  0.252798  -11.371086 
431 1 0.0 12.755455  -1.771992  -13.395876 
432 1 0.0 12.755455  -3.796782  -15.420666 
433 1 0.0 12.755455  -5.821572  -17.445456 
434 1 0.0 12.755455  -7.846362  -19.470246 
435 1 0.0 10.730665  18.475908  4.827234 
436 1 0.0 10.730665  16.451118  2.802444 
437 1 0.0 10.730665  14.426328  0.777654 
438 1 0.0 10.730665  12.401538  -1.247136 
439 1 0.0 10.730665  10.376748  -3.271926 
440 1 0.0 10.730665  8.351958  -5.296716 
441 1 0.0 10.730665  6.327168  -7.321506 
442 1 0.0 10.730665  4.302378  -9.346296 
443 1 0.0 10.730665  2.277588  -11.371086 
444 1 0.0 10.730665  0.252798  -13.395876 
445 1 0.0 10.730665  -1.771992  -15.420666 
446 1 0.0 10.730665  -3.796782  -17.445456 
447 1 0.0 10.730665  -5.821572  -19.470246 
448 1 0.0 8.705875  18.475908  2.802444 
449 1 0.0 8.705875  16.451118  0.777654 
450 1 0.0 8.705875  14.426328  -1.247136 
451 1 0.0 8.705875  12.401538  -3.271926 
452 1 0.0 8.705875  10.376748  -5.296716 
453 1 0.0 8.705875  8.351958  -7.321506 
454 1 0.0 8.705875  6.327168  -9.346296 
455 1 0.0 8.705875  4.302378  -11.371086 
456 1 0.0 8.705875  2.277588  -13.395876 
457 1 0.0 8.705875  0.252798  -15.420666 
458 1 0.0 8.705875  -1.771992  -17.445456 
459 1 0.0 8.705875  -3.796782  -19.470246 
460 1 0.0 6.681085  18.475908  0.777654 
461 1 0.0 6.681085  16.451118  -1.247136 
462 1 0.0 6.681085  14.426328  -3.271926 
463 1 0.0 6.681085  12.401538  -5.296716 
464 1 0.0 6.681085  10.376748  -7.321506 
465 1 0.0 6.681085  8.351958  -9.346296 
466 1 0.0 6.681085  6.327168  -11.371086 
467 1 0.0 6.681085  4.302378  -13.395876 
468 1 0.0 6.681085  2.277588  -15.420666 
469 1 0.0 6.681085  0.252798  -17.445456 
470 1 0.0 6.681085  -1.771992  -19.470246 
471 1 0.0 4.656295  18.475908  -1.247136 
472 1 0.0 4.656295  16.451118  -3.271926 
473 1 0.0 4.656295  14.426328  -5.296716 
474 1 0.0 4.656295  12.401538  -7.321506 
475 1 0.0 4.656295  10.376748  -9.346296 
476 1 0.0 4.656295  8.351958  -11.371086 
477 1 0.0 4.656295  6.327168  -13.395876 
478 1 0.0 4.656295  4.302378  -15.420666 
479 1 0.0 4.656295  2.277588  -17.445456 
480 1 0.0 4.656295  0.252798  -19.470246 
481 1 0.0 2.631505  18.475908  -3.271926 
482 1 0.0 2.631505  16.451118  -5.296716 
483 1 0.0 2.631505  14.426328  -7.321506 
484 1 0.0 2.631505  12.401538  -9.346296 
485 1 0.0 2.631505  10.376748  -11.371086 
486 1 0.0 2.631505  8.351958  -13.395876 
487 1 0.0 2.631505  6.327168  -15.420666 
488 1 0.0 2.631505  4.302378  -17.445456 
489 1 0.0 2.631505  2.277588  -19.470246 
490 1 0.0 0.606715  18.475908  -5.296716 
491 1 0.0 0.606715  16.451118  -7.321506 
492 1 0.0 0.606715  14.426328  -9.346296 
493 1 0.0 0.606715  12.401538  -11.371086 
494 1 0.0 0.606715  10.376748  -13.395876 
495 1 0.0 0.606715  8.351958  -15.420666 
496 1 0.0 0.606715  6.327168  -17.445456 
497 1 0.0 0.606715  4.302378  -19.470246 
498 1 0.0 -1.418075  18.475908  -7.321506 
499 1 0.0 -1.418075  16.451118  -9.346296 
500 1 0.0 -1.418075  14.426328  -11.371086 
501 1 0.0 -1.418075  12.401538  -13.395876 
502 1 0.0 -1.418075  10.376748  -15.420666 
503 1 0.0 -1.418075  8.351958  -17.445456 
504 1 0.0 -1.418075  6.327168  -19.470246 
505 1 0.0 -3.442865  18.475908  -9.346296 
506 1 0.0 -3.442865  16.451118  -11.371086 
507 1 0.0 -3.442865  14.426328  -13.395876 
508 1 0.0 -3.442865  12.401538  -15.420666 
509 1 0.0 -3.442865  10.376748  -17.445456 
510 1 0.0 -3.442865  8.351958  -19.470246 
511 1 0.0 -5.467655  18.475908  -11.371086 
512 1 0.0 -5.467655  16.451118  -13.395876 
513 1 0.0 -5.467655  14.426328  -15.420666 
514 1 0.0 -5.467655  12.401538  -17.445456 
515 1 0.0 -5.467655  10.376748  -19.470246 
516 1 0.0 -7.492445  18.475908  -13.395876 
517 1 0.0 -7.492445  16.451118  -15.420666 
518 1 0.0 -7.492445  14.426328  -17.445456 
519 1 0.0 -7.492445  12.401538  -19.470246 
520 1 0.0 -9.517235  18.475908  -15.420666 
521 1 0.0 -9.517235  16.451118  -17.445456 
522 1 0.0 -9.517235  14.426328  -19.470246 
523 1 0.0 -11.542025  18.475908  -17.445456 
524 1 0.0 -11.542025  16.451118  -19.470246 
525 1 0.0 -13.566815  18.475908  -19.470246 
526 1 0.0 18.829825  18.475908  16.975974 
527 1 0.0 18.829825  16.451118  14.951184 
528 1 0.0 18.829825  14.426328  12.926394 
529 1 0.0 18.829825  12.401538  10.901604 
530 1 0.0 18.829825  10.376748  8.876814 
531 1 0.0 18.829825  8.351958  6.852024 
532 1 0.0 18.829825  6.327168  4.827234 
533 1 0.0 18.829825  4.302378  2.802444 
534 1 0.0 18.829825  2.277588  0.777654 
535 1 0.0 18.829825  0.252798  -1.247136 
536 1 0.0 18.829825  -1.771992  -3.271926 
537 1 0.0 18.829825  -3.796782  -5.296716 
538 1 0.0 18.829825  -5.821572  -7.321506 
539 1 0.0 18.829825  -7.846362  -9.346296 
540 1 0.0 18.829825  -9.871152  -11.371086 
541 1 0.0 18.829825  -11.895942  -13.395876 
542 1 0.0 18.829825  -13.920732  -15.420666 
543 1 0.0 18.829825  -15.945522  -17.445456 
544 1 0.0 18.829825  -17.970312  -19.470246 
545 1 0.0 16.805035  18.475908  14.951184 
546 1 0.0 16.805035  16.451118  12.926394 
547 1 0.0 16.805035  14.426328  10.901604 
548 1 0.0 16.805035  12.401538  8.876814 
549 1 0.0 16.805035  10.376748  6.852024 
550 1 0.0 16.805035  8.351958  4.827234 
551 1 0.0 16.805035  6.327168  2.802444 
552 1 0.0 16.805035  4.302378  0.777654 
553 1 0.0 16.805035  2.277588  -1.247136 
554 1 0.0 16.805035  0.252798  -3.271926 
555 1 0.0 16.805035  -1.771992  -5.296716 
556 1 0.0 16.805035  -3.796782  -7.321506 
557 1 0.0 16.805035  -5.821572  -9.346296 
558 1 0.0 16.805035  -7.846362  -11.371086 
559 1 0.0 16.805035  -9.871152  -13.395876 
560 1 0.0 16.805035  -11.895942  -15.420666 
561 1 0.0 16.805035  -13.920732  -17.445456 
562 1 0.0 16.805035  -15.945522  -19.470246 
563 1 0.0 14.780245  18.475908  12.926394 
564 1 0.0 14.780245  16.451118  10.901604 
565 1 0.0 14.780245  14.426328  8.876814 
566 1 0.0 14.780245  12.401538  6.852024 
567 1 0.0 14.780245  10.376748  4.827234 
568 1 0.0 14.780245  8.351958  2.802444 
569 1 0.0 14.780245  6.327168  0.777654 
570 1 0.0 14.780245  4.302378  -1.247136 
571 1 0.0 14.780245  2.277588  -3.271926 
572 1 0.0 14.780245  0.252798  -5.296716 
573 1 0.0 14.780245  -1.771992  -7.321506 
574 1 0.0 14.780245  -3.796782  -9.346296 
575 1 0.0 14.780245  -5.821572  -11.371086 
576 1 0.0 14.780245  -7.846362  -13.395876 
577 1 0.0 14.780245  -9.871152  -15.420666 
578 1 0.0 14.780245  -11.895942  -17.445456 
579 1 0.0 14.780245  -13.920732  -19.470246 
580 1 0.0 12.755455  18.475908  10.901604 
581 1 0.0 12.755455  16.451118  8.876814 
582 1 0.0 12.755455  14.426328  6.852024 
583 1 0.0 12.755455  12.401538  4.827234 
584 1 0.0 12.755455  10.376748  2.802444 
585 1 0.0 12.755455  8.351958  0.777654 
586 1 0.0 12.755455  6.327168  -1.247136 
587 1 0.0 12.755455  4.302378  -3.271926 
588 1 0.0 12.755455  2.277588  -5.296716 
589 1 0.0 12.755455  0.252798  -7.321506 
590 1 0.0 12.755455  -1.771992  -9.346296 
591 1 0.0 12.755455  -3.796782  -11.371086 
592 1 0.0 12.755455  -5.821572  -13.395876 
593 1 0.0 12.755455  -7.846362  -15.420666 
594 1 0.0 12.755455  -9.871152  -17.445456 
595 1 0.0 12.755455  -11.895942  -19.470246 
596 1 0.0 10.730665  18.475908  8.876814 
597 1 0.0 10.730665  16.451118  6.852024 
598 1 0.0 10.730665  14.426328  4.827234 
599 1 0.0 10.730665  12.401538  2.802444 
600 1 0.0 10.730665  10.376748  0.777654 
601 1 0.0 10.730665  8.351958  -1.247136 
602 1 0.0 10.730665  6.327168  -3.271926 
603 1 0.0 10.730665  4.302378  -5.296716 
604 1 0.0 10.730665  2.277588  -7.321506 
605 1 0.0 10.730665  0.252798  -9.346296 
606 1 0.0 10.730665  -1.771992  -11.371086 
607 1 0.0 10.730665  -3.796782  -13.395876 
608 1 0.0 10.730665  -5.821572  -15.420666 
609 1 0.0 10.730665  -7.846362  -17.445456 
610 1 0.0 10.730665  -9.871152  -19.470246 
611 1 0.0 8.705875  18.475908  6.852024 
612 1 0.0 8.705875  16.451118  4.827234 
613 1 0.0 8.705875  14.426328  2.802444 
614 1 0.0 8.705875  12.401538  0.777654 
615 1 0.0 8.705875  10.376748  -1.247136 
616 1 0.0 8.705875  8.351958  -3.271926 
617 1 0.0 8.705875  6.327168  -5.296716 
618 1 0.0 8.705875  4.302378  -7.321506 
619 1 0.0 8.705875  2.277588  -9.346296 
620 1 0.0 8.705875  0.252798  -11.371086 
621 1 0.0 8.705875  -1.771992  -13.395876 
622 1 0.0 8.705875  -3.796782  -15.420666 
623 1 0.0 8.705875  -5.821572  -17.445456 
624 1 0.0 8.705875  -7.846362  -19.470246 
625 1 0.0 6.681085  18.475908  4.827234 
626 1 0.0 6.681085  16.451118  2.802444 
627 1 0.0 6.681085  14.426328  0.777654 
628 1 0.0 6.681085  12.401538  -1.247136 
629 1 0.0 6.681085  10.376748  -3.271926 
630 1 0.0 6.681085  8.351958  -5.296716 
631 1 0.0 6.681085  6.327168  -7.321506 
632 1 0.0 6.681085  4.302378  -9.346296 
633 1 0.0 6.681085  2.277588  -11.371086 
634 1 0.0 6.681085  0.252798  -13.395876 
635 1 0.0 6.681085  -1.771992  -15.420666 
636 1 0.0 6.681085  -3.796782  -17.445456 
637 1 0.0 6.681085  -5.821572  -19.470246 
638 1 0.0 4.656295  18.475908  2.802444 
639 1 0.0 4.656295  16.451118  0.777654 
640 1 0.0 4.656295  14.426328  -1.247136 
641 1 0.0 4.656295  12.401538  -3.271926 
642 1 0.0 4.656295  10.376748  -5.296716 
643 1 0.0 4.656295  8.351958  -7.321506 
644 1 0.0 4.656295  6.327168  -9.346296 
645 1 0.0 4.656295  4.302378  -11.371086 
646 1 0.0 4.656295  2.277588  -13.395876 
647 1 0.0 4.656295  0.252798  -15.420666 
648 1 0.0 4.656295  -1.771992  -17.445456 
649 1 0.0 4.656295  -3.796782  -19.470246 
650 1 0.0 2.631505  18.475908  0.777654 
651 1 0.0 2.631505  16.451118  -1.247136 
652 1 0.0 2.631505  14.426328  -3.271926 
653 1 0.0 2.631505  12.401538  -5.296716 
654 1 0.0 2.631505  10.376748  -7.321506 
655 1 0.0 2.631505  8.351958  -9.346296 
656 1 0.0 2.631505  6.327168  -11.371086 
657 1 0.0 2.631505  4.302378  -13.395876 
658 1 0.0 2.631505  2.277588  -15.420666 
659 1 0.0 2.631505  0.252798  -17.445456 
660 1 0.0 2.631505  -1.771992  -19.470246 
661 1 0.0 0.606715  18.475908  -1.247136 
662 1 0.0 0.606715  16.451118  -3.271926 
663 1 0.0 0.606715  14.426328  -5.296716 
664 1 0.0 0.606715  12.401538  -7.321506 
665 1 0.0 0.606715  10.376748  -9.346296 
666 1 0.0 0.606715  8.351958  -11.371086 
667 1 0.0 0.606715  6.327168  -13.395876 
668 1 0.0 0.606715  4.302378  -15.420666 
669 1 0.0 0.606715  2.277588  -17.445456 
670 1 0.0 0.606715  0.252798  -19.470246 
671 1 0.0 -1.418075  18.475908  -3.271926 
672 1 0.0 -1.418075  16.451118  -5.296716 
673 1 0.0 -1.418075  14.426328  -7.321506 
674 1 0.0 -1.418075  12.401538  -9.346296 
675 1 0.0 -1.418075  10.376748  -11.371086 
676 1 0.0 -1.418075  8.351958  -13.395876 
677 1 0.0 -1.418075  6.327168  -15.420666 
678 1 0.0 -1.418075  4.302378  -17.445456 
679 1 0.0 -1.418075  2.277588  -19.470246 
680 1 0.0 -3.442865  18.475908  -5.296716 
681 1 0.0 -3.442865  16.451118  -7.321506 
682 1 0.0 -3.442865  14.426328  -9.346296 
683 1 0.0 -3.442865  12.401538  -11.371086 
684 1 0.0 -3.442865  10.376748  -13.395876 
685 1 0.0 -3.442865  8.351958  -15.420666 
686 1 0.0 -3.442865  6.327168  -17.445456 
687 1 0.0 -3.442865  4.302378  -19.470246 
688 1 0.0 -5.467655  18.475908  -7.321506 
689 1 0.0 -5.467655  16.451118  -9.346296 
690 1 0.0 -5.467655  14.426328  -11.371086 
691 1 0.0 -5.467655  12.401538  -13.395876 
692 1 0.0 -5.467655  10.376748  -15.420666 
693 1 0.0 -5.467655  8.351958  -17.445456 
694 1 0.0 -5.467655  6.327168  -19.470246 
695 1 0.0 -7.492445  18.475908  -9.346296 
696 1 0.0 -7.492445  16.451118  -11.371086 